                         Program Version 6.0.1  -  RELEASE   -
|  1> !uks nousesym opt pbe0 d3 def2-svp nori strongscf noautostart miniprint nopop
|  2> %maxcore 4000
|  3> %pal nprocs 32 end
|  4> * xyzfile 0 3 /home/lky/Code_TRESC/TRESC/tests/Ni0-C2H4-3/Ni0-C2H4.xyz
|  5>
|  6>                          ****END OF INPUT****
Dispersion correction           -0.003666391
FINAL SINGLE POINT ENERGY     -1586.245431770994
Dispersion correction             ... done (  0.0 sec)
Dispersion correction           -0.003669160
FINAL SINGLE POINT ENERGY     -1586.249814309562
Dispersion correction             ... done (  0.0 sec)
Dispersion correction           -0.003672020
FINAL SINGLE POINT ENERGY     -1586.256231201295
Dispersion correction             ... done (  0.0 sec)
FINAL SINGLE POINT ENERGY     -1586.258829731824
FINAL SINGLE POINT ENERGY     -1586.260957968867
FINAL SINGLE POINT ENERGY     -1586.261589680742
FINAL SINGLE POINT ENERGY     -1586.261858233878
FINAL SINGLE POINT ENERGY     -1586.261936873767
Dispersion correction             ... done (  0.0 sec)
Dispersion correction           -0.003662921
FINAL SINGLE POINT ENERGY     -1586.261959630255
Dispersion correction             ... done (  0.0 sec)
Dispersion correction           -0.003662333
FINAL SINGLE POINT ENERGY     -1586.261967037932
Dispersion correction             ... done (  0.0 sec)
                    ***********************HURRAY********************

CARTESIAN COORDINATES (ANGSTROEM)
---------------------------------
  Ni     0.981084    3.589162   -0.259472
  C      2.471483    2.536438    0.673471
  C      2.670521    2.517924   -0.694647
  H      3.015018    3.238094    1.316114
  H      2.002776    1.691481    1.190297
  H      2.366094    1.656987   -1.300405
  H      3.378225    3.203393   -1.174379

ORBITAL ENERGIES
----------------
                 SPIN UP ORBITALS
  NO   OCC          E(Eh)            E(eV)
   0   1.0000    -300.119338     -8166.6624
   1   1.0000     -35.882952      -976.4248
   2   1.0000     -31.292702      -851.5177
   3   1.0000     -31.273512      -850.9955
   4   1.0000     -31.270718      -850.9195
   5   1.0000     -10.256656      -279.0978
   6   1.0000     -10.256083      -279.0822
   7   1.0000      -4.077225      -110.9469
   8   1.0000      -2.684086       -73.0377
   9   1.0000      -2.642846       -71.9155
  10   1.0000      -2.634609       -71.6914
  11   1.0000      -0.801640       -21.8137
  12   1.0000      -0.612187       -16.6585
  13   1.0000      -0.499515       -13.5925
  14   1.0000      -0.459079       -12.4922
  15   1.0000      -0.386284       -10.5113
  16   1.0000      -0.369828       -10.0635
  17   1.0000      -0.328823        -8.9477
  18   1.0000      -0.298877        -8.1328
  19   1.0000      -0.295805        -8.0493
  20   1.0000      -0.295349        -8.0368
  21   1.0000      -0.273798        -7.4504
  22   1.0000      -0.141981        -3.8635
  23   0.0000      -0.042896        -1.1673
  24   0.0000       0.066379         1.8063
  25   0.0000       0.070878         1.9287
  26   0.0000       0.100794         2.7427
  27   0.0000       0.106763         2.9052

                 SPIN DOWN ORBITALS
  NO   OCC          E(Eh)            E(eV)
   0   1.0000    -300.117989     -8166.6257
   1   1.0000     -35.853230      -975.6160
   2   1.0000     -31.257634      -850.5635
   3   1.0000     -31.253129      -850.4409
   4   1.0000     -31.252492      -850.4235
   5   1.0000     -10.256965      -279.1062
   6   1.0000     -10.256410      -279.0911
   7   1.0000      -4.008412      -109.0744
   8   1.0000      -2.582940       -70.2854
   9   1.0000      -2.579640       -70.1956
  10   1.0000      -2.578522       -70.1651
  11   1.0000      -0.802115       -21.8267
  12   1.0000      -0.614865       -16.7313
  13   1.0000      -0.499602       -13.5949
  14   1.0000      -0.457921       -12.4607
  15   1.0000      -0.386683       -10.5222
  16   1.0000      -0.349448        -9.5090
  17   1.0000      -0.270481        -7.3602
  18   1.0000      -0.267124        -7.2688
  19   1.0000      -0.236507        -6.4357
  20   1.0000      -0.231702        -6.3049
  21   0.0000      -0.048758        -1.3268
  22   0.0000      -0.025539        -0.6949
  23   0.0000      -0.005028        -0.1368
  24   0.0000       0.082193         2.2366
  25   0.0000       0.098044         2.6679

Total SCF time: 0 days 0 hours 0 min 0 sec
Finished LeanSCF after   0.4 sec

Dispersion correction           -0.003662111
FINAL SINGLE POINT ENERGY     -1586.261968458744

DIPOLE MOMENT
-------------

Method             : SCF
Type of density    : Electron Density
Multiplicity       :   3
Irrep              :   0
Energy             : -1586.2583063479610246 Eh
Relativity type    :
Basis              : AO
                                X                 Y                 Z
Electronic contribution:     -5.177512361       3.457904966      -0.809367130
Nuclear contribution   :      5.764192703      -3.849639994       0.901522354
                        -----------------------------------------
Total Dipole Moment    :      0.586680342      -0.391735028       0.092155224
                        -----------------------------------------
Magnitude (a.u.)       :      0.711437096
Magnitude (Debye)      :      1.808329388

Rotational constants in cm-1:             0.790432             0.222892             0.187225
Rotational constants in MHz :         23696.550991          6682.130151          5612.859407

                             ****ORCA TERMINATED NORMALLY****
TOTAL RUN TIME: 0 days 0 hours 0 minutes 33 seconds 345 msec
