                         Program Version 6.0.1  -  RELEASE   -
|  1> !uks nousesym pbe0 def2-svp nori strongscf noautostart miniprint nopop
|  2> %maxcore 4000
|  3> %pal nprocs 32 end
|  4> * xyzfile 0 2 /home/lky/Code_TRESC/TRESC/tests/SCN/read_orca/SCN.xyz
|  5>
|  6>                          ****END OF INPUT****

CARTESIAN COORDINATES (ANGSTROEM)
---------------------------------
  S     -9.116572   -3.344828    0.000000
  C    -10.768266   -3.344828    0.000000
  N    -11.925204   -3.344828    0.000000

ORBITAL ENERGIES
----------------
                 SPIN UP ORBITALS
  NO   OCC          E(Eh)            E(eV)
   0   1.0000     -89.086685     -2424.1719
   1   1.0000     -14.434153      -392.7733
   2   1.0000     -10.319495      -280.8077
   3   1.0000      -8.086642      -220.0487
   4   1.0000      -6.033183      -164.1712
   5   1.0000      -6.026560      -163.9910
   6   1.0000      -6.016780      -163.7249
   7   1.0000      -0.973760       -26.4974
   8   1.0000      -0.840448       -22.8697
   9   1.0000      -0.521093       -14.1797
  10   1.0000      -0.446845       -12.1593
  11   1.0000      -0.427791       -11.6408
  12   1.0000      -0.412451       -11.2233
  13   1.0000      -0.344881        -9.3847
  14   1.0000      -0.308908        -8.4058
  15   0.0000       0.011470         0.3121
  16   0.0000       0.026274         0.7150
  17   0.0000       0.048853         1.3294
  18   0.0000       0.167626         4.5613
  19   0.0000       0.393527        10.7084

                 SPIN DOWN ORBITALS
  NO   OCC          E(Eh)            E(eV)
   0   1.0000     -89.082036     -2424.0454
   1   1.0000     -14.426768      -392.5723
   2   1.0000     -10.322269      -280.8832
   3   1.0000      -8.081894      -219.9195
   4   1.0000      -6.023794      -163.9158
   5   1.0000      -6.017045      -163.7321
   6   1.0000      -6.014062      -163.6510
   7   1.0000      -0.958828       -26.0910
   8   1.0000      -0.812190       -22.1008
   9   1.0000      -0.505091       -13.7442
  10   1.0000      -0.424253       -11.5445
  11   1.0000      -0.408583       -11.1181
  12   1.0000      -0.401458       -10.9242
  13   1.0000      -0.296149        -8.0586
  14   0.0000      -0.205415        -5.5896
  15   0.0000       0.028456         0.7743
  16   0.0000       0.041233         1.1220
  17   0.0000       0.060440         1.6447
  18   0.0000       0.174061         4.7365

Total SCF time: 0 days 0 hours 0 min 0 sec
Finished LeanSCF after   0.6 sec

FINAL SINGLE POINT ENERGY      -490.539670747941

DIPOLE MOMENT
-------------

Method             : SCF
Type of density    : Electron Density
Multiplicity       :   2
Irrep              :   0
Energy             :  -490.5396707479409315 Eh
Relativity type    :
Basis              : AO
                                X                 Y                 Z
Electronic contribution:      0.938702538       0.000000000      -0.000000001
Nuclear contribution   :     -0.039353183      -0.000000000       0.000000000
                        -----------------------------------------
Total Dipole Moment    :      0.899349355       0.000000000      -0.000000001
                        -----------------------------------------
Magnitude (a.u.)       :      0.899349355
Magnitude (Debye)      :      2.285964391

Rotational constants in cm-1:             0.000000             0.203204             0.203204
Rotational constants in MHz :             0.000000          6091.899969          6091.899969

                             ****ORCA TERMINATED NORMALLY****
TOTAL RUN TIME: 0 days 0 hours 0 minutes 2 seconds 35 msec
