                         Program Version 6.0.1  -  RELEASE   -
|  1> !uks nousesym opt pbe0 d3 def2-svp nori strongscf noautostart miniprint nopop
|  2> %maxcore 4000
|  3> %pal nprocs 32 end
|  4> * xyzfile 0 1 /home/lky/Code_TRESC/TRESC/tests/Ni0-C2H4/Ni0-C2H4.xyz
|  5>
|  6>                          ****END OF INPUT****
Dispersion correction           -0.003705195
FINAL SINGLE POINT ENERGY     -1586.214662520036
Dispersion correction             ... done (  0.0 sec)
Dispersion correction           -0.003696227
FINAL SINGLE POINT ENERGY     -1586.230309154986
Dispersion correction             ... done (  0.0 sec)
Dispersion correction           -0.003684841
FINAL SINGLE POINT ENERGY     -1586.245314407423
Dispersion correction             ... done (  0.0 sec)
FINAL SINGLE POINT ENERGY     -1586.252391571193
FINAL SINGLE POINT ENERGY     -1586.259532013869
FINAL SINGLE POINT ENERGY     -1586.264655485452
FINAL SINGLE POINT ENERGY     -1586.266665279660
FINAL SINGLE POINT ENERGY     -1586.267594344318
FINAL SINGLE POINT ENERGY     -1586.268178929289
FINAL SINGLE POINT ENERGY     -1586.268702937115
FINAL SINGLE POINT ENERGY     -1586.269073185811
FINAL SINGLE POINT ENERGY     -1586.269329746115
FINAL SINGLE POINT ENERGY     -1586.269449714977
FINAL SINGLE POINT ENERGY     -1586.269478151051
FINAL SINGLE POINT ENERGY     -1586.269488678725
FINAL SINGLE POINT ENERGY     -1586.269496441582
Dispersion correction             ... done (  0.0 sec)
Dispersion correction           -0.003666400
FINAL SINGLE POINT ENERGY     -1586.269498459189
Dispersion correction             ... done (  0.0 sec)
Dispersion correction           -0.003666412
FINAL SINGLE POINT ENERGY     -1586.269500877630
Dispersion correction             ... done (  0.0 sec)
                    ***********************HURRAY********************

CARTESIAN COORDINATES (ANGSTROEM)
---------------------------------
  Ni     1.075671    3.527026   -0.245425
  C      2.374237    2.599125    0.688398
  C      2.580858    2.579275   -0.738086
  H      3.032752    3.212448    1.322818
  H      2.030425    1.685863    1.198327
  H      2.397618    1.649972   -1.299606
  H      3.393639    3.179768   -1.175448

ORBITAL ENERGIES
----------------
                 SPIN UP ORBITALS
  NO   OCC          E(Eh)            E(eV)
   0   1.0000    -300.033241     -8164.3195
   1   1.0000     -35.779815      -973.6183
   2   1.0000     -31.186101      -848.6170
   3   1.0000     -31.179632      -848.4409
   4   1.0000     -31.170655      -848.1966
   5   1.0000     -10.210423      -277.8397
   6   1.0000     -10.210079      -277.8304
   7   1.0000      -3.959175      -107.7346
   8   1.0000      -2.555330       -69.5341
   9   1.0000      -2.535484       -68.9940
  10   1.0000      -2.516774       -68.4849
  11   1.0000      -0.748556       -20.3692
  12   1.0000      -0.573400       -15.6030
  13   1.0000      -0.448541       -12.2054
  14   1.0000      -0.422235       -11.4896
  15   1.0000      -0.343406        -9.3446
  16   1.0000      -0.292200        -7.9512
  17   1.0000      -0.227389        -6.1876
  18   1.0000      -0.202297        -5.5048
  19   1.0000      -0.200259        -5.4493
  20   1.0000      -0.186969        -5.0877
  21   1.0000      -0.172772        -4.7014
  22   0.0000      -0.040518        -1.1025
  23   0.0000       0.003745         0.1019
  24   0.0000       0.099106         2.6968
  25   0.0000       0.120097         3.2680
  26   0.0000       0.137329         3.7369

                 SPIN DOWN ORBITALS
  NO   OCC          E(Eh)            E(eV)
   0   1.0000    -300.033241     -8164.3195
   1   1.0000     -35.779815      -973.6183
   2   1.0000     -31.186101      -848.6170
   3   1.0000     -31.179632      -848.4409
   4   1.0000     -31.170655      -848.1966
   5   1.0000     -10.210423      -277.8397
   6   1.0000     -10.210079      -277.8304
   7   1.0000      -3.959175      -107.7346
   8   1.0000      -2.555330       -69.5341
   9   1.0000      -2.535484       -68.9940
  10   1.0000      -2.516774       -68.4849
  11   1.0000      -0.748556       -20.3692
  12   1.0000      -0.573400       -15.6030
  13   1.0000      -0.448541       -12.2054
  14   1.0000      -0.422235       -11.4896
  15   1.0000      -0.343406        -9.3446
  16   1.0000      -0.292200        -7.9512
  17   1.0000      -0.227389        -6.1876
  18   1.0000      -0.202297        -5.5048
  19   1.0000      -0.200259        -5.4493
  20   1.0000      -0.186969        -5.0877
  21   1.0000      -0.172772        -4.7014
  22   0.0000      -0.040518        -1.1025
  23   0.0000       0.003745         0.1019
  24   0.0000       0.099106         2.6968
  25   0.0000       0.120097         3.2680
  26   0.0000       0.137329         3.7369

Total SCF time: 0 days 0 hours 0 min 0 sec
Finished LeanSCF after   0.5 sec

Dispersion correction           -0.003666391
FINAL SINGLE POINT ENERGY     -1586.269502273988

DIPOLE MOMENT
-------------

Method             : SCF
Type of density    : Electron Density
Multiplicity       :   1
Irrep              :   0
Energy             : -1586.2658358828259679 Eh
Relativity type    :
Basis              : AO
                                X                 Y                 Z
Electronic contribution:     -6.291057843       4.206839306      -0.987847482
Nuclear contribution   :      5.565218090      -3.720308251       0.872799623
                        -----------------------------------------
Total Dipole Moment    :     -0.725839753       0.486531056      -0.115047859
                        -----------------------------------------
Magnitude (a.u.)       :      0.881357944
Magnitude (Debye)      :      2.240233858

Rotational constants in cm-1:             0.756624             0.275148             0.219513
Rotational constants in MHz :         22683.011158          8248.741906          6580.836233

                             ****ORCA TERMINATED NORMALLY****
TOTAL RUN TIME: 0 days 0 hours 0 minutes 54 seconds 374 msec
